/*--------------------------------*- C++ -*----------------------------------*\
| =========                 |                                                 |
| \\      /  F ield         | OpenFOAM: The Open Source CFD Toolbox           |
|  \\    /   O peration     | Version:  2.1.1                                 |
|   \\  /    A nd           | Web:      www.OpenFOAM.org                      |
|    \\/     M anipulation  |                                                 |
\*---------------------------------------------------------------------------*/
FoamFile
{
    version     2.0;
    format      ascii;
    class       volScalarField;
    location    "0";
    object      rhoE;
}
// * * * * * * * * * * * * * * * * * * * * * * * * * * * * * * * * * * * * * //

dimensions      [0 -3 1 0 0 1 0];

internalField   nonuniform List<scalar> 
262144
(
4.38503e-43
6.47077e-43
9.53404e-43
1.4026e-42
2.0603e-42
3.02179e-42
4.42521e-42
6.47055e-42
9.44683e-42
1.37711e-41
2.00442e-41
2.91303e-41
4.22706e-41
6.12449e-41
8.86011e-41
1.27981e-40
1.84582e-40
2.65809e-40
3.82197e-40
5.4871e-40
7.86566e-40
1.12581e-39
1.60891e-39
2.29582e-39
3.27099e-39
4.65327e-39
6.6096e-39
9.37408e-39
1.32746e-38
1.87693e-38
2.64981e-38
3.73523e-38
5.25724e-38
7.38815e-38
1.03669e-37
1.45246e-37
2.03186e-37
2.83805e-37
3.95808e-37
5.51171e-37
7.66347e-37
1.0639e-36
1.47474e-36
2.04111e-36
2.82069e-36
3.89207e-36
5.36221e-36
7.37639e-36
1.01317e-35
1.38949e-35
1.90269e-35
2.60147e-35
3.55144e-35
4.84093e-35
6.58856e-35
8.95343e-35
1.21486e-34
1.64588e-34
2.22643e-34
3.00717e-34
4.05549e-34
5.46093e-34
7.3422e-34
9.85652e-34
1.32117e-33
1.7682e-33
2.36287e-33
3.15273e-33
4.20021e-33
5.58717e-33
7.4208e-33
9.84116e-33
1.30311e-32
1.72286e-32
2.27435e-32
2.99781e-32
3.94535e-32
5.18449e-32
6.80241e-32
8.91164e-32
1.16571e-31
1.5225e-31
1.98548e-31
2.58529e-31
3.36116e-31
4.36323e-31
5.65541e-31
7.31909e-31
9.45774e-31
1.22027e-30
1.57203e-30
2.0221e-30
2.59706e-30
3.33042e-30
4.26435e-30
5.45186e-30
6.95943e-30
8.87034e-30
1.12887e-29
1.43445e-29
1.81996e-29
2.30557e-29
2.91629e-29
3.68317e-29
4.6446e-29
5.84808e-29
7.35217e-29
9.22901e-29
1.15673e-28
1.44759e-28
1.80883e-28
2.25676e-28
2.81133e-28
3.49684e-28
4.34286e-28
5.38535e-28
6.6679e-28
8.24332e-28
1.01754e-27
1.25412e-27
1.54335e-27
1.89638e-27
2.32662e-27
2.85011e-27
3.48606e-27
4.25742e-27
5.19153e-27
6.32093e-27
7.68429e-27
9.32748e-27
1.13048e-26
1.36804e-26
1.65299e-26
1.99425e-26
2.4023e-26
2.88942e-26
3.47002e-26
4.16094e-26
4.98182e-26
5.95555e-26
7.10874e-26
8.47229e-26
1.0082e-25
1.19792e-25
1.42118e-25
1.68348e-25
1.99114e-25
2.35144e-25
2.77271e-25
3.26445e-25
3.83756e-25
4.50439e-25
5.27904e-25
6.17748e-25
7.2178e-25
8.42045e-25
9.80852e-25
1.1408e-24
1.3248e-24
1.53614e-24
1.77848e-24
2.05591e-24
2.37299e-24
2.7348e-24
3.14696e-24
3.61573e-24
4.14798e-24
4.75133e-24
5.43415e-24
6.20561e-24
7.07579e-24
8.0557e-24
9.15732e-24
1.03937e-23
1.17791e-23
1.33287e-23
1.50592e-23
1.69885e-23
1.91356e-23
2.15213e-23
2.41676e-23
2.70978e-23
3.0337e-23
3.39116e-23
3.78496e-23
4.21805e-23
4.69353e-23
5.21464e-23
5.78478e-23
6.40746e-23
7.08636e-23
7.82524e-23
8.62798e-23
9.49856e-23
1.0441e-22
1.14596e-22
1.25582e-22
1.37413e-22
1.50128e-22
1.6377e-22
1.7838e-22
1.93996e-22
2.10658e-22
2.28402e-22
2.47263e-22
2.67273e-22
2.88463e-22
3.10857e-22
3.3448e-22
3.59348e-22
3.85477e-22
4.12876e-22
4.41547e-22
4.7149e-22
5.02696e-22
5.3515e-22
5.6883e-22
6.03708e-22
6.39748e-22
6.76905e-22
7.15129e-22
7.5436e-22
7.94529e-22
8.35561e-22
8.77372e-22
9.19871e-22
9.62958e-22
1.00653e-21
1.05046e-21
1.09464e-21
1.13894e-21
1.18323e-21
1.22736e-21
1.2712e-21
1.3146e-21
1.35741e-21
1.39947e-21
1.44064e-21
1.48076e-21
1.51967e-21
1.55723e-21
1.59328e-21
1.62768e-21
1.66029e-21
1.69097e-21
1.71959e-21
1.74603e-21
1.77018e-21
1.79192e-21
1.81116e-21
1.82782e-21
1.84182e-21
1.85309e-21
1.8616e-21
1.86729e-21
1.87014e-21
1.87014e-21
1.86729e-21
1.8616e-21
1.85309e-21
1.84182e-21
1.82782e-21
1.81116e-21
1.79192e-21
1.77018e-21
1.74603e-21
1.71959e-21
1.69097e-21
1.66029e-21
1.62768e-21
1.59328e-21
1.55723e-21
1.51967e-21
1.48076e-21
1.44064e-21
1.39947e-21
1.35741e-21
1.3146e-21
1.2712e-21
1.22736e-21
1.18323e-21
1.13894e-21
1.09464e-21
1.05046e-21
1.00653e-21
9.62958e-22
9.19871e-22
8.77372e-22
8.35561e-22
7.94529e-22
7.5436e-22
7.15129e-22
6.76905e-22
6.39748e-22
6.03708e-22
5.6883e-22
5.3515e-22
5.02696e-22
4.7149e-22
4.41547e-22
4.12876e-22
3.85477e-22
3.59348e-22
3.3448e-22
3.10857e-22
2.88463e-22
2.67273e-22
2.47263e-22
2.28402e-22
2.10658e-22
1.93996e-22
1.7838e-22
1.6377e-22
1.50128e-22
1.37413e-22
1.25582e-22
1.14596e-22
1.0441e-22
9.49856e-23
8.62798e-23
7.82524e-23
7.08636e-23
6.40746e-23
5.78478e-23
5.21464e-23
4.69353e-23
4.21805e-23
3.78496e-23
3.39116e-23
3.0337e-23
2.70978e-23
2.41676e-23
2.15213e-23
1.91356e-23
1.69885e-23
1.50592e-23
1.33287e-23
1.17791e-23
1.03937e-23
9.15732e-24
8.0557e-24
7.07579e-24
6.20561e-24
5.43415e-24
4.75133e-24
4.14798e-24
3.61573e-24
3.14696e-24
2.7348e-24
2.37299e-24
2.05591e-24
1.77848e-24
1.53614e-24
1.3248e-24
1.1408e-24
9.80852e-25
8.42045e-25
7.2178e-25
6.17748e-25
5.27904e-25
4.50439e-25
3.83756e-25
3.26445e-25
2.77271e-25
2.35144e-25
1.99114e-25
1.68348e-25
1.42118e-25
1.19792e-25
1.0082e-25
8.47229e-26
7.10874e-26
5.95555e-26
4.98182e-26
4.16094e-26
3.47002e-26
2.88942e-26
2.4023e-26
1.99425e-26
1.65299e-26
1.36804e-26
1.13048e-26
9.32748e-27
7.68429e-27
6.32093e-27
5.19153e-27
4.25742e-27
3.48606e-27
2.85011e-27
2.32662e-27
1.89638e-27
1.54335e-27
1.25412e-27
1.01754e-27
8.24332e-28
6.6679e-28
5.38535e-28
4.34286e-28
3.49684e-28
2.81133e-28
2.25676e-28
1.80883e-28
1.44759e-28
1.15673e-28
9.22901e-29
7.35217e-29
5.84808e-29
4.6446e-29
3.68317e-29
2.91629e-29
2.30557e-29
1.81996e-29
1.43445e-29
1.12887e-29
8.87034e-30
6.95943e-30
5.45186e-30
4.26435e-30
3.33042e-30
2.59706e-30
2.0221e-30
1.57203e-30
1.22027e-30
9.45774e-31
7.31909e-31
5.65541e-31
4.36323e-31
3.36116e-31
2.58529e-31
1.98548e-31
1.5225e-31
1.16571e-31
8.91164e-32
6.80241e-32
5.18449e-32
3.94535e-32
2.99781e-32
2.27435e-32
1.72286e-32
1.30311e-32
9.84116e-33
7.4208e-33
5.58717e-33
4.20021e-33
3.15273e-33
2.36287e-33
1.7682e-33
1.32117e-33
9.85652e-34
7.3422e-34
5.46093e-34
4.05549e-34
3.00717e-34
2.22643e-34
1.64588e-34
1.21486e-34
8.95343e-35
6.58856e-35
4.84093e-35
3.55144e-35
2.60147e-35
1.90269e-35
1.38949e-35
1.01317e-35
7.37639e-36
5.36221e-36
3.89207e-36
2.82069e-36
2.04111e-36
1.47474e-36
1.0639e-36
7.66347e-37
5.51171e-37
3.95808e-37
2.83805e-37
2.03186e-37
1.45246e-37
1.03669e-37
7.38815e-38
5.25724e-38
3.73523e-38
2.64981e-38
1.87693e-38
1.32746e-38
9.37408e-39
6.6096e-39
4.65327e-39
3.27099e-39
2.29582e-39
1.60891e-39
1.12581e-39
7.86566e-40
5.4871e-40
3.82197e-40
2.65809e-40
1.84582e-40
1.27981e-40
8.86011e-41
6.12449e-41
4.22706e-41
2.91303e-41
2.00442e-41
1.37711e-41
9.44683e-42
6.47055e-42
4.42521e-42
3.02179e-42
2.0603e-42
1.4026e-42
9.53404e-43
6.47077e-43
4.38503e-43
6.47077e-43
9.5486e-43
1.40689e-42
2.06975e-42
3.04029e-42
4.4591e-42
6.53006e-42
9.54828e-42
1.39402e-41
2.03213e-41
2.95782e-41
4.29861e-41
6.23767e-41
9.03761e-41
1.30744e-40
1.88855e-40
2.72378e-40
3.92241e-40
5.63989e-40
8.09704e-40
1.1607e-39
1.6613e-39
2.37419e-39
3.38782e-39
4.82684e-39
6.8666e-39
9.75345e-39
1.38329e-38
1.95886e-38
2.7697e-38
3.91019e-38
5.5119e-38
7.75785e-38
1.09023e-37
1.5298e-37
2.14332e-37
2.99831e-37
4.18797e-37
5.84075e-37
8.13336e-37
1.13086e-36
1.56995e-36
2.1762e-36
3.01197e-36
4.16235e-36
5.74334e-36
7.91274e-36
1.0885e-35
1.49508e-35
2.05041e-35
2.80771e-35
3.83886e-35
5.24069e-35
7.14353e-35
9.72242e-35
1.32121e-34
1.79271e-34
2.42875e-34
3.28544e-34
4.43753e-34
5.98449e-34
8.05842e-34
1.08345e-33
1.45448e-33
1.94958e-33
2.60924e-33
3.48677e-33
4.65233e-33
6.19804e-33
8.24471e-33
1.09505e-32
1.45221e-32
1.92293e-32
2.54234e-32
3.35615e-32
4.42371e-32
5.82196e-32
7.65049e-32
1.0038e-31
1.31505e-31
1.72018e-31
2.24668e-31
2.92987e-31
3.81498e-31
4.9599e-31
6.4386e-31
8.34541e-31
1.08004e-30
1.39563e-30
1.80069e-30
2.31976e-30
2.98391e-30
3.83235e-30
4.91454e-30
6.2927e-30
8.04504e-30
1.02697e-29
1.30895e-29
1.66582e-29
2.11674e-29
2.68563e-29
3.40222e-29
4.30343e-29
5.43507e-29
6.85381e-29
8.62973e-29
1.08492e-28
1.36188e-28
1.70693e-28
2.13614e-28
2.6692e-28
3.33019e-28
4.14854e-28
5.16011e-28
6.40855e-28
7.9469e-28
9.8395e-28
1.21643e-27
1.50154e-27
1.85064e-27
2.27744e-27
2.7984e-27
3.43327e-27
4.20577e-27
5.14421e-27
6.28247e-27
7.66088e-27
9.32748e-27
1.13393e-26
1.37641e-26
1.66819e-26
2.01874e-26
2.43923e-26
2.94282e-26
3.54495e-26
4.26378e-26
5.12055e-26
6.1401e-26
7.35143e-26
8.78831e-26
1.049e-25
1.25021e-25
1.48775e-25
1.76772e-25
2.09717e-25
2.48422e-25
2.93823e-25
3.46991e-25
4.09155e-25
4.8172e-25
5.66289e-25
6.64691e-25
7.79002e-25
9.1158e-25
1.06509e-24
1.24256e-24
1.4474e-24
1.68342e-24
1.95495e-24
2.26681e-24
2.62442e-24
3.0338e-24
3.5017e-24
4.0356e-24
4.64382e-24
5.33555e-24
6.12097e-24
7.01131e-24
8.0189e-24
9.15732e-24
1.04414e-23
1.18874e-23
1.3513e-23
1.53375e-23
1.73818e-23
1.96685e-23
2.22221e-23
2.5069e-23
2.82375e-23
3.1758e-23
3.56629e-23
3.99869e-23
4.47668e-23
5.00417e-23
5.58528e-23
6.22437e-23
6.92601e-23
7.69499e-23
8.53631e-23
9.45518e-23
1.0457e-22
1.15473e-22
1.27319e-22
1.40166e-22
1.54073e-22
1.69103e-22
1.85316e-22
2.02773e-22
2.21537e-22
2.41668e-22
2.63226e-22
2.8627e-22
3.10857e-22
3.37041e-22
3.64873e-22
3.94402e-22
4.2567e-22
4.58717e-22
4.93575e-22
5.30273e-22
5.6883e-22
6.09261e-22
6.5157e-22
6.95755e-22
7.41804e-22
7.89694e-22
8.39394e-22
8.90862e-22
9.44044e-22
9.98876e-22
1.05528e-21
1.11317e-21
1.17245e-21
1.233e-21
1.29469e-21
1.35741e-21
1.42099e-21
1.48528e-21
1.55011e-21
1.61531e-21
1.68068e-21
1.74603e-21
1.81116e-21
1.87585e-21
1.93989e-21
2.00306e-21
2.06513e-21
2.12588e-21
2.18508e-21
2.2425e-21
2.29792e-21
2.35112e-21
2.40189e-21
2.45001e-21
2.49528e-21
2.53752e-21
2.57654e-21
2.61216e-21
2.64425e-21
2.67264e-21
2.69722e-21
2.71788e-21
2.73452e-21
2.74707e-21
2.75546e-21
2.75967e-21
2.75967e-21
2.75546e-21
2.74707e-21
2.73452e-21
2.71788e-21
2.69722e-21
2.67264e-21
2.64425e-21
2.61216e-21
2.57654e-21
2.53752e-21
2.49528e-21
2.45001e-21
2.40189e-21
2.35112e-21
2.29792e-21
2.2425e-21
2.18508e-21
2.12588e-21
2.06513e-21
2.00306e-21
1.93989e-21
1.87585e-21
1.81116e-21
1.74603e-21
1.68068e-21
1.61531e-21
1.55011e-21
1.48528e-21
1.42099e-21
1.35741e-21
1.29469e-21
1.233e-21
1.17245e-21
1.11317e-21
1.05528e-21
9.98876e-22
9.44044e-22
8.90862e-22
8.39394e-22
7.89694e-22
7.41804e-22
6.95755e-22
6.5157e-22
6.09261e-22
5.6883e-22
5.30273e-22
4.93575e-22
4.58717e-22
4.2567e-22
3.94402e-22
3.64873e-22
3.37041e-22
3.10857e-22
2.8627e-22
2.63226e-22
2.41668e-22
2.21537e-22
2.02773e-22
1.85316e-22
1.69103e-22
1.54073e-22
1.40166e-22
1.27319e-22
1.15473e-22
1.0457e-22
9.45518e-23
8.53631e-23
7.69499e-23
6.92601e-23
6.22437e-23
5.58528e-23
5.00417e-23
4.47668e-23
3.99869e-23
3.56629e-23
3.1758e-23
2.82375e-23
2.5069e-23
2.22221e-23
1.96685e-23
1.73818e-23
1.53375e-23
1.3513e-23
1.18874e-23
1.04414e-23
9.15732e-24
8.0189e-24
7.01131e-24
6.12097e-24
5.33555e-24
4.64382e-24
4.0356e-24
3.5017e-24
3.0338e-24
2.62442e-24
2.26681e-24
1.95495e-24
1.68342e-24
1.4474e-24
1.24256e-24
1.06509e-24
9.1158e-25
7.79002e-25
6.64691e-25
5.66289e-25
4.8172e-25
4.09155e-25
3.46991e-25
2.93823e-25
2.48422e-25
2.09717e-25
1.76772e-25
1.48775e-25
1.25021e-25
1.049e-25
8.78831e-26
7.35143e-26
6.1401e-26
5.12055e-26
4.26378e-26
3.54495e-26
2.94282e-26
2.43923e-26
2.01874e-26
1.66819e-26
1.37641e-26
1.13393e-26
9.32748e-27
7.66088e-27
6.28247e-27
5.14421e-27
4.20577e-27
3.43327e-27
2.7984e-27
2.27744e-27
1.85064e-27
1.50154e-27
1.21643e-27
9.8395e-28
7.9469e-28
6.40855e-28
5.16011e-28
4.14854e-28
3.33019e-28
2.6692e-28
2.13614e-28
1.70693e-28
1.36188e-28
1.08492e-28
8.62973e-29
6.85381e-29
5.43507e-29
4.30343e-29
3.40222e-29
2.68563e-29
2.11674e-29
1.66582e-29
1.30895e-29
1.02697e-29
8.04504e-30
6.2927e-30
4.91454e-30
3.83235e-30
2.98391e-30
2.31976e-30
1.80069e-30
1.39563e-30
1.08004e-30
8.34541e-31
6.4386e-31
4.9599e-31
3.81498e-31
2.92987e-31
2.24668e-31
1.72018e-31
1.31505e-31
1.0038e-31
7.65049e-32
5.82196e-32
4.42371e-32
3.35615e-32
2.54234e-32
1.92293e-32
1.45221e-32
1.09505e-32
8.24471e-33
6.19804e-33
4.65233e-33
3.48677e-33
2.60924e-33
1.94958e-33
1.45448e-33
1.08345e-33
8.05842e-34
5.98449e-34
4.43753e-34
3.28544e-34
2.42875e-34
1.79271e-34
1.32121e-34
9.72242e-35
7.14353e-35
5.24069e-35
3.83886e-35
2.80771e-35
2.05041e-35
1.49508e-35
1.0885e-35
7.91274e-36
5.74334e-36
4.16235e-36
3.01197e-36
2.1762e-36
1.56995e-36
1.13086e-36
8.13336e-37
5.84075e-37
4.18797e-37
2.99831e-37
2.14332e-37
1.5298e-37
1.09023e-37
7.75785e-38
5.5119e-38
3.91019e-38
2.7697e-38
1.95886e-38
1.38329e-38
9.75345e-39
6.8666e-39
4.82684e-39
3.38782e-39
2.37419e-39
1.6613e-39
1.1607e-39
8.09704e-40
5.63989e-40
3.92241e-40
2.72378e-40
1.88855e-40
1.30744e-40
9.03761e-41
6.23767e-41
4.29861e-41
2.95782e-41
2.03213e-41
1.39402e-41
9.54828e-42
6.53006e-42
4.4591e-42
3.04029e-42
2.06975e-42
1.40689e-42
9.5486e-43
6.47077e-43
9.53404e-43
1.40689e-42
2.07292e-42
3.04958e-42
4.47956e-42
6.57004e-42
9.6214e-42
1.40684e-41
2.05395e-41
2.99415e-41
4.35805e-41
6.33358e-41
9.19059e-41
1.3316e-40
1.92639e-40
2.78259e-40
4.01322e-40
5.77928e-40
8.30982e-40
1.19302e-39
1.71017e-39
2.44776e-39
3.49814e-39
4.99162e-39
7.11187e-39
1.01173e-38
1.43707e-38
2.03814e-38
2.88619e-38
4.08087e-38
5.76128e-38
8.12123e-38
1.14304e-37
1.60635e-37
2.25401e-37
3.15797e-37
4.41772e-37
6.17056e-37
8.60576e-37
1.19837e-36
1.66621e-36
2.31316e-36
3.20642e-36
4.43783e-36
6.13281e-36
8.46223e-36
1.16586e-35
1.60379e-35
2.20286e-35
3.02107e-35
4.13688e-35
5.65617e-35
7.72164e-35
1.05253e-34
1.4325e-34
1.94668e-34
2.64138e-34
3.57852e-34
4.84077e-34
6.53827e-34
8.81755e-34
1.18733e-33
1.59636e-33
2.14303e-33
2.87252e-33
3.84446e-33
5.13741e-33
6.85474e-33
9.13219e-33
1.21478e-32
1.61345e-32
2.13969e-32
2.83325e-32
3.74589e-32
4.94496e-32
6.5179e-32
8.57809e-32
1.12722e-31
1.479e-31
1.93759e-31
2.53451e-31
3.31027e-31
4.31687e-31
5.62099e-31
7.30793e-31
9.48665e-31
1.22961e-30
1.59133e-30
2.05633e-30
2.65314e-30
3.41794e-30
4.3965e-30
5.64659e-30
7.24108e-30
9.27167e-30
1.18536e-29
1.51314e-29
1.92861e-29
2.45442e-29
3.11881e-29
3.95701e-29
5.01283e-29
6.34068e-29
8.00803e-29
1.00984e-28
1.2715e-28
1.59853e-28
2.00659e-28
2.51499e-28
3.14739e-28
3.9328e-28
4.90671e-28
6.11247e-28
7.60291e-28
9.44236e-28
1.1709e-27
1.44975e-27
1.79228e-27
2.21236e-27
2.72674e-27
3.35559e-27
4.12316e-27
5.05859e-27
6.19678e-27
7.57949e-27
9.25659e-27
1.12875e-26
1.37431e-26
1.67074e-26
2.028e-26
2.45791e-26
2.97442e-26
3.59397e-26
4.33595e-26
5.22313e-26
6.28225e-26
7.54462e-26
9.04682e-26
1.08316e-25
1.29487e-25
1.5456e-25
1.84207e-25
2.19205e-25
2.60456e-25
3.08997e-25
3.66026e-25
4.32919e-25
5.11256e-25
6.02849e-25
7.09766e-25
8.34371e-25
9.79357e-25
1.14778e-24
1.34312e-24
1.56931e-24
1.8308e-24
2.13259e-24
2.48035e-24
2.88042e-24
3.33992e-24
3.86682e-24
4.47001e-24
5.15941e-24
5.94606e-24
6.84221e-24
7.8614e-24
9.01865e-24
1.03305e-23
1.18151e-23
1.34924e-23
1.53844e-23
1.75149e-23
1.99101e-23
2.25983e-23
2.56103e-23
2.89796e-23
3.27421e-23
3.69367e-23
4.16052e-23
4.67923e-23
5.25458e-23
5.89167e-23
6.59595e-23
7.37315e-23
8.22936e-23
9.17099e-23
1.02048e-22
1.13378e-22
1.25774e-22
1.39313e-22
1.54073e-22
1.70138e-22
1.87592e-22
2.0652e-22
2.27012e-22
2.49156e-22
2.73044e-22
2.98766e-22
3.26412e-22
3.56073e-22
3.87837e-22
4.21791e-22
4.58017e-22
4.96597e-22
5.37605e-22
5.81112e-22
6.27183e-22
6.75873e-22
7.27234e-22
7.81304e-22
8.38114e-22
8.97685e-22
9.60024e-22
1.02513e-21
1.09297e-21
1.16354e-21
1.23676e-21
1.3126e-21
1.39096e-21
1.47174e-21
1.55485e-21
1.64015e-21
1.72748e-21
1.8167e-21
1.9076e-21
2.00001e-21
2.09369e-21
2.18841e-21
2.28394e-21
2.38e-21
2.47632e-21
2.57261e-21
2.66857e-21
2.76388e-21
2.85824e-21
2.95131e-21
3.04277e-21
3.13227e-21
3.2195e-21
3.3041e-21
3.38576e-21
3.46415e-21
3.53895e-21
3.60985e-21
3.67655e-21
3.73879e-21
3.79627e-21
3.84877e-21
3.89604e-21
3.93787e-21
3.97409e-21
4.00453e-21
4.02904e-21
4.04753e-21
4.0599e-21
4.0661e-21
4.0661e-21
4.0599e-21
4.04753e-21
4.02904e-21
4.00453e-21
3.97409e-21
3.93787e-21
3.89604e-21
3.84877e-21
3.79627e-21
3.73879e-21
3.67655e-21
3.60985e-21
3.53895e-21
3.46415e-21
3.38576e-21
3.3041e-21
3.2195e-21
3.13227e-21
3.04277e-21
2.95131e-21
2.85824e-21
2.76388e-21
2.66857e-21
2.57261e-21
2.47632e-21
2.38e-21
2.28394e-21
2.18841e-21
2.09369e-21
2.00001e-21
1.9076e-21
1.8167e-21
1.72748e-21
1.64015e-21
1.55485e-21
1.47174e-21
1.39096e-21
1.3126e-21
1.23676e-21
1.16354e-21
1.09297e-21
1.02513e-21
9.60024e-22
8.97685e-22
8.38114e-22
7.81304e-22
7.27234e-22
6.75873e-22
6.27183e-22
5.81112e-22
5.37605e-22
4.96597e-22
4.58017e-22
4.21791e-22
3.87837e-22
3.56073e-22
3.26412e-22
2.98766e-22
2.73044e-22
2.49156e-22
2.27012e-22
2.0652e-22
1.87592e-22
1.70138e-22
1.54073e-22
1.39313e-22
1.25774e-22
1.13378e-22
1.02048e-22
9.17099e-23
8.22936e-23
7.37315e-23
6.59595e-23
5.89167e-23
5.25458e-23
4.67923e-23
4.16052e-23
3.69367e-23
3.27421e-23
2.89796e-23
2.56103e-23
2.25983e-23
1.99101e-23
1.75149e-23
1.53844e-23
1.34924e-23
1.18151e-23
1.03305e-23
9.01865e-24
7.8614e-24
6.84221e-24
5.94606e-24
5.15941e-24
4.47001e-24
3.86682e-24
3.33992e-24
2.88042e-24
2.48035e-24
2.13259e-24
1.8308e-24
1.56931e-24
1.34312e-24
1.14778e-24
9.79357e-25
8.34371e-25
7.09766e-25
6.02849e-25
5.11256e-25
4.32919e-25
3.66026e-25
3.08997e-25
2.60456e-25
2.19205e-25
1.84207e-25
1.5456e-25
1.29487e-25
1.08316e-25
9.04682e-26
7.54462e-26
6.28225e-26
5.22313e-26
4.33595e-26
3.59397e-26
2.97442e-26
2.45791e-26
2.028e-26
1.67074e-26
1.37431e-26
1.12875e-26
9.25659e-27
7.57949e-27
6.19678e-27
5.05859e-27
4.12316e-27
3.35559e-27
2.72674e-27
2.21236e-27
1.79228e-27
1.44975e-27
1.1709e-27
9.44236e-28
7.60291e-28
6.11247e-28
4.90671e-28
3.9328e-28
3.14739e-28
2.51499e-28
2.00659e-28
1.59853e-28
1.2715e-28
1.00984e-28
8.00803e-29
6.34068e-29
5.01283e-29
3.95701e-29
3.11881e-29
2.45442e-29
1.92861e-29
1.51314e-29
1.18536e-29
9.27167e-30
7.24108e-30
5.64659e-30
4.3965e-30
3.41794e-30
2.65314e-30
2.05633e-30
1.59133e-30
1.22961e-30
9.48665e-31
7.30793e-31
5.62099e-31
4.31687e-31
3.31027e-31
2.53451e-31
1.93759e-31
1.479e-31
1.12722e-31
8.57809e-32
6.5179e-32
4.94496e-32
3.74589e-32
2.83325e-32
2.13969e-32
1.61345e-32
1.21478e-32
9.13219e-33
6.85474e-33
5.13741e-33
3.84446e-33
2.87252e-33
2.14303e-33
1.59636e-33
1.18733e-33
8.81755e-34
6.53827e-34
4.84077e-34
3.57852e-34
2.64138e-34
1.94668e-34
1.4325e-34
1.05253e-34
7.72164e-35
5.65617e-35
4.13688e-35
3.02107e-35
2.20286e-35
1.60379e-35
1.16586e-35
8.46223e-36
6.13281e-36
4.43783e-36
3.20642e-36
2.31316e-36
1.66621e-36
1.19837e-36
8.60576e-37
6.17056e-37
4.41772e-37
3.15797e-37
2.25401e-37
1.60635e-37
1.14304e-37
8.12123e-38
5.76128e-38
4.08087e-38
2.88619e-38
2.03814e-38
1.43707e-38
1.01173e-38
7.11187e-39
4.99162e-39
3.49814e-39
2.44776e-39
1.71017e-39
1.19302e-39
8.30982e-40
5.77928e-40
4.01322e-40
2.78259e-40
1.92639e-40
1.3316e-40
9.19059e-41
6.33358e-41
4.35805e-41
2.99415e-41
2.05395e-41
1.40684e-41
9.6214e-42
6.57004e-42
4.47956e-42
3.04958e-42
2.07292e-42
1.40689e-42
9.53404e-43
1.4026e-42
2.06975e-42
3.04958e-42
4.4864e-42
6.59012e-42
9.66555e-42
1.41546e-41
2.06968e-41
3.02168e-41
4.40485e-41
6.41137e-41
9.31767e-41
1.35208e-40
1.95899e-40
2.83401e-40
4.09362e-40
5.90407e-40
8.50221e-40
1.2225e-39
1.75511e-39
2.51593e-39
3.60104e-39
5.1463e-39
7.34344e-39
1.04627e-38
1.4884e-38
2.11416e-38
2.99841e-38
4.24603e-38
6.00359e-38
8.47573e-38
1.19476e-37
1.68159e-37
2.36319e-37
3.31599e-37
4.64586e-37
6.49914e-37
9.07785e-37
1.26604e-36
1.76299e-36
2.45125e-36
3.40302e-36
4.71714e-36
6.52874e-36
9.02231e-36
1.24493e-35
1.71517e-35
2.35943e-35
3.24074e-35
4.44446e-35
6.08599e-35
8.3211e-35
1.13597e-34
1.54843e-34
2.10743e-34
2.86386e-34
3.88587e-34
5.26456e-34
7.12152e-34
9.6188e-34
1.2972e-33
1.74674e-33
2.34849e-33
3.15273e-33
4.22592e-33
5.65579e-33
7.55793e-33
1.00844e-32
1.34349e-32
1.78712e-32
2.37363e-32
3.14781e-32
4.16814e-32
5.51078e-32
7.2748e-32
9.58884e-32
1.26197e-31
1.65832e-31
2.17583e-31
2.85049e-31
3.72865e-31
4.86991e-31
6.35079e-31
8.26935e-31
1.07511e-30
1.39563e-30
1.80895e-30
2.3411e-30
3.02517e-30
3.90317e-30
5.02832e-30
6.46793e-30
8.30701e-30
1.06528e-29
1.36401e-29
1.74384e-29
2.22606e-29
2.83728e-29
3.61082e-29
4.58825e-29
5.82137e-29
7.37464e-29
9.32811e-29
1.1781e-28
1.48563e-28
1.87058e-28
2.35168e-28
2.95201e-28
3.69994e-28
4.63029e-28
5.78576e-28
7.21853e-28
8.99238e-28
1.11851e-27
1.38912e-27
1.72257e-27
2.13281e-27
2.63672e-27
3.25473e-27
4.01146e-27
4.93658e-27
6.06581e-27
7.44197e-27
9.11642e-27
1.11506e-26
1.36179e-26
1.66057e-26
2.02183e-26
2.45791e-26
2.98351e-26
3.61597e-26
4.37583e-26
5.28728e-26
6.37885e-26
7.68403e-26
9.24216e-26
1.10993e-25
1.33093e-25
1.5935e-25
1.90495e-25
2.27382e-25
2.70996e-25
3.22485e-25
3.83171e-25
4.54582e-25
5.38481e-25
6.36891e-25
7.52137e-25
8.86884e-25
1.04418e-24
1.22749e-24
1.44078e-24
1.68857e-24
1.97594e-24
2.3087e-24
2.69338e-24
3.13737e-24
3.64898e-24
4.23755e-24
4.91354e-24
5.68868e-24
6.57607e-24
7.59029e-24
8.74758e-24
1.00659e-23
1.15653e-23
1.32678e-23
1.51977e-23
1.73818e-23
1.98494e-23
2.26328e-23
2.57671e-23
2.92908e-23
3.32455e-23
3.76767e-23
4.26334e-23
4.81687e-23
5.43396e-23
6.12077e-23
6.88386e-23
7.73029e-23
8.66756e-23
9.70366e-23
1.0847e-22
1.21067e-22
1.34919e-22
1.50128e-22
1.66797e-22
1.85033e-22
2.0495e-22
2.26666e-22
2.503e-22
2.75976e-22
3.03823e-22
3.3397e-22
3.66548e-22
4.0169e-22
4.39531e-22
4.80203e-22
5.23839e-22
5.70568e-22
6.20519e-22
6.73814e-22
7.3057e-22
7.909e-22
8.54906e-22
9.22682e-22
9.94314e-22
1.06987e-21
1.14942e-21
1.233e-21
1.32063e-21
1.41234e-21
1.50812e-21
1.60793e-21
1.71174e-21
1.81947e-21
1.93103e-21
2.04631e-21
2.16516e-21
2.28743e-21
2.41291e-21
2.5414e-21
2.67264e-21
2.80638e-21
2.94232e-21
3.08014e-21
3.2195e-21
3.36003e-21
3.50135e-21
3.64305e-21
3.7847e-21
3.92587e-21
4.0661e-21
4.20491e-21
4.34183e-21
4.47638e-21
4.60806e-21
4.73637e-21
4.86084e-21
4.98098e-21
5.0963e-21
5.20634e-21
5.31064e-21
5.40878e-21
5.50033e-21
5.5849e-21
5.66213e-21
5.73167e-21
5.79322e-21
5.8465e-21
5.89128e-21
5.92734e-21
5.95454e-21
5.97274e-21
5.98186e-21
5.98186e-21
5.97274e-21
5.95454e-21
5.92734e-21
5.89128e-21
5.8465e-21
5.79322e-21
5.73167e-21
5.66213e-21
5.5849e-21
5.50033e-21
5.40878e-21
5.31064e-21
5.20634e-21
5.0963e-21
4.98098e-21
4.86084e-21
4.73637e-21
4.60806e-21
4.47638e-21
4.34183e-21
4.20491e-21
4.0661e-21
3.92587e-21
3.7847e-21
3.64305e-21
3.50135e-21
3.36003e-21
3.2195e-21
3.08014e-21
2.94232e-21
2.80638e-21
2.67264e-21
2.5414e-21
2.41291e-21
2.28743e-21
2.16516e-21
2.04631e-21
1.93103e-21
1.81947e-21
1.71174e-21
1.60793e-21
1.50812e-21
1.41234e-21
1.32063e-21
1.233e-21
1.14942e-21
1.06987e-21
9.94314e-22
9.22682e-22
8.54906e-22
7.909e-22
7.3057e-22
6.73814e-22
6.20519e-22
5.70568e-22
5.23839e-22
4.80203e-22
4.39531e-22
4.0169e-22
3.66548e-22
3.3397e-22
3.03823e-22
2.75976e-22
2.503e-22
2.26666e-22
2.0495e-22
1.85033e-22
1.66797e-22
1.50128e-22
1.34919e-22
1.21067e-22
1.0847e-22
9.70366e-23
8.66756e-23
7.73029e-23
6.88386e-23
6.12077e-23
5.43396e-23
4.81687e-23
4.26334e-23
3.76767e-23
3.32455e-23
2.92908e-23
2.57671e-23
2.26328e-23
1.98494e-23
1.73818e-23
1.51977e-23
1.32678e-23
1.15653e-23
1.00659e-23
8.74758e-24
7.59029e-24
6.57607e-24
5.68868e-24
4.91354e-24
4.23755e-24
3.64898e-24
3.13737e-24
2.69338e-24
2.3087e-24
1.97594e-24
1.68857e-24
1.44078e-24
1.22749e-24
1.04418e-24
8.86884e-25
7.52137e-25
6.36891e-25
5.38481e-25
4.54582e-25
3.83171e-25
3.22485e-25
2.70996e-25
2.27382e-25
1.90495e-25
1.5935e-25
1.33093e-25
1.10993e-25
9.24216e-26
7.68403e-26
6.37885e-26
5.28728e-26
4.37583e-26
3.61597e-26
2.98351e-26
2.45791e-26
2.02183e-26
1.66057e-26
1.36179e-26
1.11506e-26
9.11642e-27
7.44197e-27
6.06581e-27
4.93658e-27
4.01146e-27
3.25473e-27
2.63672e-27
2.13281e-27
1.72257e-27
1.38912e-27
1.11851e-27
8.99238e-28
7.21853e-28
5.78576e-28
4.63029e-28
3.69994e-28
2.95201e-28
2.35168e-28
1.87058e-28
1.48563e-28
1.1781e-28
9.32811e-29
7.37464e-29
5.82137e-29
4.58825e-29
3.61082e-29
2.83728e-29
2.22606e-29
1.74384e-29
1.36401e-29
1.06528e-29
8.30701e-30
6.46793e-30
5.02832e-30
3.90317e-30
3.02517e-30
2.3411e-30
1.80895e-30
1.39563e-30
1.07511e-30
8.26935e-31
6.35079e-31
4.86991e-31
3.72865e-31
2.85049e-31
2.17583e-31
1.65832e-31
1.26197e-31
9.58884e-32
7.2748e-32
5.51078e-32
4.16814e-32
3.14781e-32
2.37363e-32
1.78712e-32
1.34349e-32
1.00844e-32
7.55793e-33
5.65579e-33
4.22592e-33
3.15273e-33
2.34849e-33
1.74674e-33
1.2972e-33
9.6188e-34
7.12152e-34
5.26456e-34
3.88587e-34
2.86386e-34
2.10743e-34
1.54843e-34
1.13597e-34
8.3211e-35
6.08599e-35
4.44446e-35
3.24074e-35
2.35943e-35
1.71517e-35
1.24493e-35
9.02231e-36
6.52874e-36
4.71714e-36
3.40302e-36
2.45125e-36
1.76299e-36
1.26604e-36
9.07785e-37
6.49914e-37
4.64586e-37
3.31599e-37
2.36319e-37
1.68159e-37
1.19476e-37
8.47573e-38
6.00359e-38
4.24603e-38
2.99841e-38
2.11416e-38
1.4884e-38
1.04627e-38
7.34344e-39
5.1463e-39
3.60104e-39
2.51593e-39
1.75511e-39
1.2225e-39
8.50221e-40
5.90407e-40
4.09362e-40
2.83401e-40
1.95899e-40
1.35208e-40
9.31767e-41
6.41137e-41
4.40485e-41
3.02168e-41
2.06968e-41
1.41546e-41
9.66555e-42
6.59012e-42
4.4864e-42
3.04958e-42
2.06975e-42
1.4026e-42
2.0603e-42
3.04029e-42
4.47956e-42
6.59012e-42
9.68031e-42
1.41978e-41
2.07918e-41
3.04018e-41
4.43859e-41
6.47033e-41
9.41773e-41
1.36868e-40
1.98608e-40
2.87759e-40
4.16291e-40
6.01317e-40
8.67255e-40
1.2489e-39
1.79575e-39
2.57811e-39
3.69567e-39
5.28961e-39
7.55946e-39
1.07869e-38
1.53687e-38
2.18633e-38
3.10551e-38
4.4044e-38
6.23704e-38
8.81875e-38
1.24501e-37
1.75499e-37
2.47011e-37
3.47132e-37
4.8709e-37
6.82436e-37
9.54666e-37
1.33346e-36
1.8597e-36
2.58967e-36
3.60067e-36
4.99874e-36
6.92905e-36
9.59014e-36
1.3253e-35
1.82868e-35
2.51943e-35
3.46579e-35
4.76036e-35
6.52852e-35
8.93978e-35
1.2223e-34
1.66864e-34
2.27451e-34
3.09563e-34
4.20676e-34
5.708e-34
7.73317e-34
1.04609e-33
1.41292e-33
1.90547e-33
2.56581e-33
3.44973e-33
4.63108e-33
6.2075e-33
8.30785e-33
1.11019e-32
1.48131e-32
1.97346e-32
2.62513e-32
3.48665e-32
4.62386e-32
6.12263e-32
8.09485e-32
1.0686e-31
1.40852e-31
1.85372e-31
2.43593e-31
3.19611e-31
4.18712e-31
5.47706e-31
7.15347e-31
9.32874e-31
1.21469e-30
1.57924e-30
2.05006e-30
2.65719e-30
3.43887e-30
4.44371e-30
5.73341e-30
7.38615e-30
9.50081e-30
1.22023e-29
1.56479e-29
2.0036e-29
2.56155e-29
3.26988e-29
4.16772e-29
5.30398e-29
6.73973e-29
8.55108e-29
1.08327e-28
1.37022e-28
1.73053e-28
2.18226e-28
2.74772e-28
3.45441e-28
4.33624e-28
5.43488e-28
6.80149e-28
8.49876e-28
1.06034e-27
1.3209e-27
1.64299e-27
2.04049e-27
2.5303e-27
3.13291e-27
3.87311e-27
4.78091e-27
5.89247e-27
7.2514e-27
8.91013e-27
1.09316e-26
1.33912e-26
1.63792e-26
2.00034e-26
2.43923e-26
2.96988e-26
3.61046e-26
4.38251e-26
5.31154e-26
6.4277e-26
7.76655e-26
9.36996e-26
1.12872e-25
1.35759e-25
1.63039e-25
1.95501e-25
2.3407e-25
2.79821e-25
3.34003e-25
3.9807e-25
4.73702e-25
5.62844e-25
6.67741e-25
7.9098e-25
9.35536e-25
1.10482e-24
1.30275e-24
1.5338e-24
1.80307e-24
2.11638e-24
2.48035e-24
2.90248e-24
3.39128e-24
3.95634e-24
4.60852e-24
5.36003e-24
6.22458e-24
7.21755e-24
8.35617e-24
9.65966e-24
1.11495e-23
1.28494e-23
1.4786e-23
1.69885e-23
1.94893e-23
2.23241e-23
2.55323e-23
2.9157e-23
3.32455e-23
3.78496e-23
4.30256e-23
4.88348e-23
5.53438e-23
6.26247e-23
7.07555e-23
7.98201e-23
8.99086e-23
1.01118e-22
1.13551e-22
1.27319e-22
1.42538e-22
1.59333e-22
1.77836e-22
1.98185e-22
2.20525e-22
2.45009e-22
2.71797e-22
3.01054e-22
3.32952e-22
3.67668e-22
4.05385e-22
4.46289e-22
4.90572e-22
5.38426e-22
5.90047e-22
6.45632e-22
7.05376e-22
7.69473e-22
8.38114e-22
9.11488e-22
9.89773e-22
1.07314e-21
1.16176e-21
1.25578e-21
1.35534e-21
1.46056e-21
1.57155e-21
1.68839e-21
1.81116e-21
1.93989e-21
2.07461e-21
2.21529e-21
2.36191e-21
2.5144e-21
2.67264e-21
2.83652e-21
3.00585e-21
3.18043e-21
3.36003e-21
3.54435e-21
3.73308e-21
3.92587e-21
4.12232e-21
4.322e-21
4.52445e-21
4.72915e-21
4.93558e-21
5.14317e-21
5.35131e-21
5.55939e-21
5.76676e-21
5.97274e-21
6.17664e-21
6.37777e-21
6.5754e-21
6.76883e-21
6.95731e-21
7.14015e-21
7.31661e-21
7.48601e-21
7.64765e-21
7.80086e-21
7.94502e-21
8.0795e-21
8.20373e-21
8.31716e-21
8.41931e-21
8.50972e-21
8.58799e-21
8.65376e-21
8.70674e-21
8.74669e-21
8.77342e-21
8.78682e-21
8.78682e-21
8.77342e-21
8.74669e-21
8.70674e-21
8.65376e-21
8.58799e-21
8.50972e-21
8.41931e-21
8.31716e-21
8.20373e-21
8.0795e-21
7.94502e-21
7.80086e-21
7.64765e-21
7.48601e-21
7.31661e-21
7.14015e-21
6.95731e-21
6.76883e-21
6.5754e-21
6.37777e-21
6.17664e-21
5.97274e-21
5.76676e-21
5.55939e-21
5.35131e-21
5.14317e-21
4.93558e-21
4.72915e-21
4.52445e-21
4.322e-21
4.12232e-21
3.92587e-21
3.73308e-21
3.54435e-21
3.36003e-21
3.18043e-21
3.00585e-21
2.83652e-21
2.67264e-21
2.5144e-21
2.36191e-21
2.21529e-21
2.07461e-21
1.93989e-21
1.81116e-21
1.68839e-21
1.57155e-21
1.46056e-21
1.35534e-21
1.25578e-21
1.16176e-21
1.07314e-21
9.89773e-22
9.11488e-22
8.38114e-22
7.69473e-22
7.05376e-22
6.45632e-22
5.90047e-22
5.38426e-22
4.90572e-22
4.46289e-22
4.05385e-22
3.67668e-22
3.32952e-22
3.01054e-22
2.71797e-22
2.45009e-22
2.20525e-22
1.98185e-22
1.77836e-22
1.59333e-22
1.42538e-22
1.27319e-22
1.13551e-22
1.01118e-22
8.99086e-23
7.98201e-23
7.07555e-23
6.26247e-23
5.53438e-23
4.88348e-23
4.30256e-23
3.78496e-23
3.32455e-23
2.9157e-23
2.55323e-23
2.23241e-23
1.94893e-23
1.69885e-23
1.4786e-23
1.28494e-23
1.11495e-23
9.65966e-24
8.35617e-24
7.21755e-24
6.22458e-24
5.36003e-24
4.60852e-24
3.95634e-24
3.39128e-24
2.90248e-24
2.48035e-24
2.11638e-24
1.80307e-24
1.5338e-24
1.30275e-24
1.10482e-24
9.35536e-25
7.9098e-25
6.67741e-25
5.62844e-25
4.73702e-25
3.9807e-25
3.34003e-25
2.79821e-25
2.3407e-25
1.95501e-25
1.63039e-25
1.35759e-25
1.12872e-25
9.36996e-26
7.76655e-26
6.4277e-26
5.31154e-26
4.38251e-26
3.61046e-26
2.96988e-26
2.43923e-26
2.00034e-26
1.63792e-26
1.33912e-26
1.09316e-26
8.91013e-27
7.2514e-27
5.89247e-27
4.78091e-27
3.87311e-27
3.13291e-27
2.5303e-27
2.04049e-27
1.64299e-27
1.3209e-27
1.06034e-27
8.49876e-28
6.80149e-28
5.43488e-28
4.33624e-28