/*--------------------------------*- C++ -*----------------------------------*\
| =========                 |                                                 |
| \\      /  F ield         | OpenFOAM: The Open Source CFD Toolbox           |
|  \\    /   O peration     | Version:  2.1.1                                 |
|   \\  /    A nd           | Web:      www.OpenFOAM.org                      |
|    \\/     M anipulation  |                                                 |
\*---------------------------------------------------------------------------*/
FoamFile
{
    version     2.0;
    format      ascii;
    class       volScalarField;
    location    "0";
    object      rhoE;
}
// * * * * * * * * * * * * * * * * * * * * * * * * * * * * * * * * * * * * * //

dimensions      [0 -3 1 0 0 1 0];

internalField   nonuniform List<scalar> 
65536
(
6.47324e-43
1.40528e-42
3.03218e-42
6.50272e-42
1.38607e-41
2.93646e-41
6.18318e-41
1.29405e-40
2.69176e-40
5.56509e-40
1.14356e-39
2.33557e-39
4.74107e-39
9.56554e-39
1.91819e-38
3.82317e-38
7.57364e-38
1.4912e-37
2.91819e-37
5.67601e-37
1.09729e-36
2.10838e-36
4.02648e-36
7.64278e-36
1.44187e-35
2.70365e-35
5.03877e-35
9.33357e-35
1.71838e-34
3.14443e-34
5.7189e-34
1.03379e-33
1.85739e-33
3.31681e-33
5.88693e-33
1.0385e-32
1.82084e-32
3.17313e-32
5.49608e-32
9.46167e-32
1.61894e-31
2.75324e-31
4.65379e-31
7.8184e-31
1.30551e-30
2.16665e-30
3.57395e-30
5.85945e-30
9.54804e-30
1.5464e-29
2.4893e-29
3.98276e-29
6.33342e-29
1.00102e-28
1.57252e-28
2.45527e-28
3.81023e-28
5.87696e-28
9.00955e-28
1.37279e-27
2.07899e-27
3.12932e-27
4.68164e-27
6.96138e-27
1.02883e-26
1.51125e-26
2.20639e-26
3.20167e-26
4.61763e-26
6.6193e-26
9.43092e-26
1.3355e-25
1.87969e-25
2.62952e-25
3.65607e-25
5.05246e-25
6.9397e-25
9.47387e-25
1.28548e-24
1.7336e-24
2.32372e-24
3.09576e-24
4.09922e-24
5.3949e-24
7.05692e-24
9.1748e-24
1.18557e-23
1.52267e-23
1.94373e-23
2.46612e-23
3.10986e-23
3.89779e-23
4.85561e-23
6.012e-23
7.3985e-23
9.04936e-23
1.10012e-22
1.32927e-22
1.59638e-22
1.90549e-22
2.26061e-22
2.6656e-22
3.12403e-22
3.639e-22
4.21308e-22
4.84804e-22
5.54476e-22
6.30301e-22
7.12135e-22
7.99698e-22
8.92563e-22
9.90151e-22
1.09172e-21
1.19639e-21
1.30312e-21
1.41073e-21
1.51793e-21
1.62334e-21
1.72551e-21
1.82294e-21
1.91416e-21
1.99772e-21
2.07223e-21
2.13645e-21
2.18925e-21
2.2297e-21
2.25709e-21
2.27091e-21
2.27091e-21
2.25709e-21
2.2297e-21
2.18925e-21
2.13645e-21
2.07223e-21
1.99772e-21
1.91416e-21
1.82294e-21
1.72551e-21
1.62334e-21
1.51793e-21
1.41073e-21
1.30312e-21
1.19639e-21
1.09172e-21
9.90151e-22
8.92563e-22
7.99698e-22
7.12135e-22
6.30301e-22
5.54476e-22
4.84804e-22
4.21308e-22
3.639e-22
3.12403e-22
2.6656e-22
2.26061e-22
1.90549e-22
1.59638e-22
1.32927e-22
1.10012e-22
9.04936e-23
7.3985e-23
6.012e-23
4.85561e-23
3.89779e-23
3.10986e-23
2.46612e-23
1.94373e-23
1.52267e-23
1.18557e-23
9.1748e-24
7.05692e-24
5.3949e-24
4.09922e-24
3.09576e-24
2.32372e-24
1.7336e-24
1.28548e-24
9.47387e-25
6.9397e-25
5.05246e-25
3.65607e-25
2.62952e-25
1.87969e-25
1.3355e-25
9.43092e-26
6.6193e-26
4.61763e-26
3.20167e-26
2.20639e-26
1.51125e-26
1.02883e-26
6.96138e-27
4.68164e-27
3.12932e-27
2.07899e-27
1.37279e-27
9.00955e-28
5.87696e-28
3.81023e-28
2.45527e-28
1.57252e-28
1.00102e-28
6.33342e-29
3.98276e-29
2.4893e-29
1.5464e-29
9.54804e-30
5.85945e-30
3.57395e-30
2.16665e-30
1.30551e-30
7.8184e-31
4.65379e-31
2.75324e-31
1.61894e-31
9.46167e-32
5.49608e-32
3.17313e-32
1.82084e-32
1.0385e-32
5.88693e-33
3.31681e-33
1.85739e-33
1.03379e-33
5.7189e-34
3.14443e-34
1.71838e-34
9.33357e-35
5.03877e-35
2.70365e-35
1.44187e-35
7.64278e-36
4.02648e-36
2.10838e-36
1.09729e-36
5.67601e-37
2.91819e-37
1.4912e-37
7.57364e-38
3.82317e-38
1.91819e-38
9.56554e-39
4.74107e-39
2.33557e-39
1.14356e-39
5.56509e-40
2.69176e-40
1.29405e-40
6.18318e-41
2.93646e-41
1.38607e-41
6.50272e-42
3.03218e-42
1.40528e-42
6.47324e-43
1.40528e-42
3.05074e-42
6.58259e-42
1.41168e-41
3.00903e-41
6.37479e-41
1.34231e-40
2.80926e-40
5.84357e-40
1.20813e-39
2.48256e-39
5.0703e-39
1.02924e-38
2.07659e-38
4.16422e-38
8.29976e-38
1.64417e-37
3.23725e-37
6.33514e-37
1.23221e-36
2.38212e-36
4.5771e-36
8.74112e-36
1.65918e-35
3.13017e-35
5.86939e-35
1.09387e-34
2.02623e-34
3.73045e-34
6.82627e-34
1.24152e-33
2.24427e-33
4.03222e-33
7.2005e-33
1.278e-32
2.25449e-32
3.95289e-32
6.88859e-32
1.19315e-31
2.05404e-31
3.51458e-31
5.97704e-31
1.0103e-30
1.6973e-30
2.83413e-30
4.7036e-30
7.75872e-30
1.27203e-29
2.07279e-29
3.35709e-29
5.40406e-29
8.6462e-29
1.37493e-28
2.17312e-28
3.4138e-28
5.33017e-28
8.27167e-28
1.27583e-27
1.95589e-27
2.9802e-27
4.5133e-27
6.79348e-27
1.01634e-26
1.51125e-26
2.23349e-26
3.28079e-26
4.78987e-26
6.95053e-26
1.00245e-25
1.43699e-25
2.04737e-25
2.89926e-25
4.08063e-25
5.70844e-25
7.937e-25
1.09684e-24
1.50655e-24
2.05669e-24
2.79065e-24
3.76349e-24
5.04459e-24
6.72063e-24
8.89904e-24
1.17118e-23
1.53199e-23
1.99177e-23
2.57376e-23
3.30559e-23
4.21966e-23
5.35372e-23
6.75123e-23
8.46174e-23
1.05411e-22
1.30515e-22
1.60615e-22
1.96453e-22
2.38827e-22
2.88573e-22
3.46559e-22
4.13664e-22
4.90759e-22
5.78679e-22
6.78198e-22
7.89995e-22
9.14622e-22
1.05247e-21
1.20372e-21
1.36833e-21
1.54598e-21
1.73607e-21
1.93767e-21
2.14953e-21
2.37003e-21
2.59726e-21
2.82895e-21
3.06256e-21
3.29529e-21
3.52413e-21
3.74592e-21
3.95745e-21
4.15548e-21
4.33687e-21
4.49863e-21
4.63804e-21
4.75266e-21
4.84049e-21
4.89994e-21
4.92994e-21
4.92994e-21
4.89994e-21
4.84049e-21
4.75266e-21
4.63804e-21
4.49863e-21
4.33687e-21
4.15548e-21
3.95745e-21
3.74592e-21
3.52413e-21
3.29529e-21
3.06256e-21
2.82895e-21
2.59726e-21
2.37003e-21
2.14953e-21
1.93767e-21
1.73607e-21
1.54598e-21
1.36833e-21
1.20372e-21
1.05247e-21
9.14622e-22
7.89995e-22
6.78198e-22
5.78679e-22
4.90759e-22
4.13664e-22
3.46559e-22
2.88573e-22
2.38827e-22
1.96453e-22
1.60615e-22
1.30515e-22
1.05411e-22
8.46174e-23
6.75123e-23
5.35372e-23
4.21966e-23
3.30559e-23
2.57376e-23
1.99177e-23
1.53199e-23
1.17118e-23
8.89904e-24
6.72063e-24
5.04459e-24
3.76349e-24
2.79065e-24
2.05669e-24
1.50655e-24
1.09684e-24
7.937e-25
5.70844e-25
4.08063e-25
2.89926e-25
2.04737e-25
1.43699e-25
1.00245e-25
6.95053e-26
4.78987e-26
3.28079e-26
2.23349e-26
1.51125e-26
1.01634e-26
6.79348e-27
4.5133e-27
2.9802e-27
1.95589e-27
1.27583e-27
8.27167e-28
5.33017e-28
3.4138e-28
2.17312e-28
1.37493e-28
8.6462e-29
5.40406e-29
3.35709e-29
2.07279e-29
1.27203e-29
7.75872e-30
4.7036e-30
2.83413e-30
1.6973e-30
1.0103e-30
5.97704e-31
3.51458e-31
2.05404e-31
1.19315e-31
6.88859e-32
3.95289e-32
2.25449e-32
1.278e-32
7.2005e-33
4.03222e-33
2.24427e-33
1.24152e-33
6.82627e-34
3.73045e-34
2.02623e-34
1.09387e-34
5.86939e-35
3.13017e-35
1.65918e-35
8.74112e-36
4.5771e-36
2.38212e-36
1.23221e-36
6.33514e-37
3.23725e-37
1.64417e-37
8.29976e-38
4.16422e-38
2.07659e-38
1.02924e-38
5.0703e-39
2.48256e-39
1.20813e-39
5.84357e-40
2.80926e-40
1.34231e-40
6.37479e-41
3.00903e-41
1.41168e-41
6.58259e-42
3.05074e-42
1.40528e-42
3.03218e-42
6.58259e-42
1.42032e-41
3.04599e-41
6.49259e-41
1.37549e-40
2.89631e-40
6.06153e-40
1.26087e-39
2.60679e-39
5.35662e-39
1.09402e-38
2.2208e-38
4.48066e-38
8.98514e-38
1.79084e-37
3.54762e-37
6.98502e-37
1.36693e-36
2.65874e-36
5.13989e-36
9.87601e-36
1.88607e-35
3.58001e-35
6.75397e-35
1.26644e-34
2.36025e-34
4.372e-34
8.0492e-34
1.4729e-33
2.67883e-33
4.84245e-33
8.70031e-33
1.55365e-32
2.75754e-32
4.86451e-32
8.52914e-32
1.48635e-31
2.57446e-31
4.43201e-31
7.58341e-31
1.28967e-30
2.17991e-30
3.66227e-30
6.11521e-30
1.0149e-29
1.6741e-29
2.74467e-29
4.47247e-29
7.2436e-29
1.16603e-28
1.86559e-28
2.96669e-28
4.68895e-28
7.36596e-28
1.15009e-27
1.78478e-27
2.75287e-27
4.22023e-27
6.43037e-27
9.73835e-27
1.46583e-26
2.19296e-26
3.26083e-26
4.8192e-26
7.07897e-26
1.03351e-25
1.49972e-25
2.16298e-25
3.1006e-25
4.41761e-25
6.25574e-25
8.80479e-25
1.23171e-24
1.71257e-24
2.36666e-24
3.25068e-24
4.43773e-24
6.02139e-24
8.12049e-24
1.08847e-23
1.45011e-23
1.92015e-23
2.52707e-23
3.30559e-23
4.29763e-23
5.55341e-23
7.13246e-23
9.10476e-23
1.15517e-22
1.45671e-22
1.82579e-22
2.27445e-22
2.81613e-22
3.46559e-22
4.23888e-22
5.15316e-22
6.22653e-22
7.4777e-22
8.92563e-22
1.05891e-21
1.24862e-21
1.46335e-21
1.70457e-21
1.97348e-21
2.27091e-21
2.59726e-21
2.95244e-21
3.33576e-21
3.74592e-21
4.18092e-21
4.63804e-21
5.11382e-21
5.60411e-21
6.10403e-21
6.60809e-21
7.11025e-21
7.60401e-21
8.08258e-21
8.53899e-21
8.96628e-21
9.35766e-21
9.7067e-21
1.00075e-20
1.02548e-20
1.04443e-20
1.05726e-20
1.06373e-20
1.06373e-20
1.05726e-20
1.04443e-20
1.02548e-20
1.00075e-20
9.7067e-21
9.35766e-21
8.96628e-21
8.53899e-21
8.08258e-21
7.60401e-21
7.11025e-21
6.60809e-21
6.10403e-21
5.60411e-21
5.11382e-21
4.63804e-21
4.18092e-21
3.74592e-21
3.33576e-21
2.95244e-21
2.59726e-21
2.27091e-21
1.97348e-21
1.70457e-21
1.46335e-21
1.24862e-21
1.05891e-21
8.92563e-22
7.4777e-22
6.22653e-22
5.15316e-22
4.23888e-22
3.46559e-22
2.81613e-22
2.27445e-22
1.82579e-22
1.45671e-22
1.15517e-22
9.10476e-23
7.13246e-23
5.55341e-23
4.29763e-23
3.30559e-23
2.52707e-23
1.92015e-23
1.45011e-23
1.08847e-23
8.12049e-24
6.02139e-24
4.43773e-24
3.25068e-24
2.36666e-24
1.71257e-24
1.23171e-24
8.80479e-25
6.25574e-25
4.41761e-25
3.1006e-25
2.16298e-25
1.49972e-25
1.03351e-25
7.07897e-26
4.8192e-26
3.26083e-26
2.19296e-26
1.46583e-26
9.73835e-27
6.43037e-27
4.22023e-27
2.75287e-27
1.78478e-27
1.15009e-27
7.36596e-28
4.68895e-28
2.96669e-28
1.86559e-28
1.16603e-28
7.2436e-29
4.47247e-29
2.74467e-29
1.6741e-29
1.0149e-29
6.11521e-30
3.66227e-30
2.17991e-30
1.28967e-30
7.58341e-31
4.43201e-31
2.57446e-31
1.48635e-31
8.52914e-32
4.86451e-32
2.75754e-32
1.55365e-32
8.70031e-33
4.84245e-33
2.67883e-33
1.4729e-33
8.0492e-34
4.372e-34
2.36025e-34
1.26644e-34
6.75397e-35
3.58001e-35
1.88607e-35
9.87601e-36
5.13989e-36
2.65874e-36
1.36693e-36
6.98502e-37
3.54762e-37
1.79084e-37
8.98514e-38
4.48066e-38
2.2208e-38
1.09402e-38
5.35662e-39
2.60679e-39
1.26087e-39
6.06153e-40
2.89631e-40
1.37549e-40
6.49259e-41
3.04599e-41
1.42032e-41
6.58259e-42
3.03218e-42
6.50272e-42
1.41168e-41
3.04599e-41
6.53234e-41
1.39238e-40
2.94983e-40
6.21134e-40
1.29994e-39
2.70402e-39
5.59044e-39
1.14876e-38
2.3462e-38
4.76266e-38
9.6091e-38
1.92693e-37
3.84058e-37
7.60813e-37
1.49799e-36
2.93148e-36
5.70186e-36
1.10229e-35
2.11798e-35
4.04481e-35
7.67758e-35
1.44844e-34
2.71597e-34
5.06172e-34
9.37607e-34
1.72621e-33
3.15875e-33
5.74494e-33
1.0385e-32
1.86584e-32
3.33192e-32
5.91374e-32
1.04323e-31
1.82914e-31
3.18758e-31
5.52111e-31
9.50476e-31
1.62632e-30
2.76578e-30
4.67498e-30
7.85401e-30
1.31145e-29
2.17652e-29
3.59022e-29
5.88613e-29
9.59153e-29
1.55344e-28
2.50064e-28
4.00089e-28
6.36227e-28
1.00558e-27
1.57968e-27
2.46645e-27
3.82758e-27
5.90372e-27
9.05058e-27
1.37904e-26
2.08846e-26
3.14358e-26
4.70297e-26
6.99308e-26
1.03351e-25
1.51814e-25
2.21644e-25
3.21625e-25
4.63866e-25
6.64945e-25
9.47387e-25
1.34159e-24
1.88825e-24
2.64149e-24
3.67272e-24
5.07547e-24
6.9713e-24
9.51702e-24
1.29133e-23
1.7415e-23
2.3343e-23
3.10986e-23
4.11789e-23
5.41947e-23
7.08906e-23
9.21658e-23
1.19097e-22
1.52961e-22
1.95258e-22
2.47735e-22
3.12403e-22
3.91554e-22
4.87773e-22
6.03938e-22
7.4322e-22
9.09057e-22
1.10513e-21
1.33532e-21
1.60365e-21
1.91416e-21
2.27091e-21
2.67774e-21
3.13825e-21
3.65558e-21
4.23227e-21
4.87012e-21
5.57001e-21
6.33171e-21
7.15378e-21
8.0334e-21
8.96628e-21
9.9466e-21
1.0967e-20
1.20184e-20
1.30905e-20
1.41715e-20
1.52484e-20
1.63073e-20
1.73337e-20
1.83125e-20
1.92288e-20
2.00682e-20
2.08167e-20
2.14618e-20
2.19922e-20
2.23986e-20
2.26737e-20
2.28125e-20
2.28125e-20
2.26737e-20
2.23986e-20
2.19922e-20
2.14618e-20
2.08167e-20
2.00682e-20
1.92288e-20
1.83125e-20
1.73337e-20
1.63073e-20
1.52484e-20
1.41715e-20
1.30905e-20
1.20184e-20
1.0967e-20
9.9466e-21
8.96628e-21
8.0334e-21
7.15378e-21
6.33171e-21
5.57001e-21
4.87012e-21
4.23227e-21
3.65558e-21
3.13825e-21
2.67774e-21
2.27091e-21
1.91416e-21
1.60365e-21
1.33532e-21
1.10513e-21
9.09057e-22
7.4322e-22
6.03938e-22
4.87773e-22
3.91554e-22
3.12403e-22
2.47735e-22
1.95258e-22
1.52961e-22
1.19097e-22
9.21658e-23
7.08906e-23
5.41947e-23
4.11789e-23
3.10986e-23
2.3343e-23
1.7415e-23
1.29133e-23
9.51702e-24
6.9713e-24
5.07547e-24
3.67272e-24
2.64149e-24
1.88825e-24
1.34159e-24
9.47387e-25
6.64945e-25
4.63866e-25
3.21625e-25
2.21644e-25
1.51814e-25
1.03351e-25
6.99308e-26
4.70297e-26
3.14358e-26
2.08846e-26
1.37904e-26
9.05058e-27
5.90372e-27
3.82758e-27
2.46645e-27
1.57968e-27
1.00558e-27
6.36227e-28
4.00089e-28
2.50064e-28
1.55344e-28
9.59153e-29
5.88613e-29
3.59022e-29
2.17652e-29
1.31145e-29
7.85401e-30
4.67498e-30
2.76578e-30
1.62632e-30
9.50476e-31
5.52111e-31
3.18758e-31
1.82914e-31
1.04323e-31
5.91374e-32
3.33192e-32
1.86584e-32
1.0385e-32
5.74494e-33
3.15875e-33
1.72621e-33
9.37607e-34
5.06172e-34
2.71597e-34
1.44844e-34
7.67758e-35
4.04481e-35
2.11798e-35
1.10229e-35
5.70186e-36
2.93148e-36
1.49799e-36
7.60813e-37
3.84058e-37
1.92693e-37
9.6091e-38
4.76266e-38
2.3462e-38
1.14876e-38
5.59044e-39
2.70402e-39
1.29994e-39
6.21134e-40
2.94983e-40
1.39238e-40
6.53234e-41
3.04599e-41
1.41168e-41
6.50272e-42
1.38607e-41
3.00903e-41
6.49259e-41
1.39238e-40
2.96789e-40
6.28763e-40
1.32396e-39
2.77085e-39
5.76367e-39
1.19161e-38
2.44862e-38
5.00098e-38
1.01517e-37
2.0482e-37
4.10728e-37
8.18628e-37
1.62169e-36
3.19299e-36
6.24852e-36
1.21536e-35
2.34955e-35
4.51452e-35
8.62161e-35
1.63649e-34
3.08737e-34
5.78914e-34
1.07892e-33
1.99853e-33
3.67945e-33
6.73294e-33
1.22455e-32
2.21358e-32
3.97709e-32
7.10205e-32
1.26053e-31
2.22366e-31
3.89884e-31
6.7944e-31
1.17684e-30
2.02596e-30
3.46653e-30
5.89532e-30
9.96482e-30
1.6741e-29
2.79539e-29
4.63929e-29
7.65263e-29
1.25464e-28
2.04445e-28
3.31119e-28
5.33017e-28
8.52799e-28
1.35613e-27
2.14341e-27
3.36713e-27
5.25729e-27
8.15857e-27
1.25839e-26
1.92915e-26
2.93945e-26
4.45159e-26
6.7006e-26
1.00245e-25
1.49059e-25
2.20295e-25
3.23594e-25
4.72438e-25
6.8555e-25
9.88741e-25
1.41734e-24
2.01938e-24
2.85962e-24
4.02484e-24
5.63039e-24
7.82849e-24
1.08185e-23
1.48595e-23
2.02857e-23
2.7525e-23
3.71204e-23
4.97562e-23
6.62874e-23
8.77736e-23
1.15517e-22
1.51105e-22
1.96453e-22
2.53857e-22
3.26039e-22
4.16197e-22
5.28052e-22
6.65893e-22
8.34605e-22
1.0397e-21
1.28731e-21
1.58419e-21
1.93767e-21
2.35561e-21
2.84627e-21
3.4182e-21
4.08008e-21
4.84049e-21
5.70767e-21
6.68925e-21
7.79194e-21
9.02117e-21
1.03808e-20
1.18726e-20
1.34962e-20
1.52484e-20
1.71234e-20
1.91118e-20
2.12014e-20
2.33763e-20
2.56175e-20
2.79027e-20
3.02069e-20
3.25024e-20
3.47594e-20
3.69471e-20
3.90334e-20
4.09866e-20
4.27757e-20
4.43713e-20
4.57462e-20
4.68768e-20
4.77431e-20
4.83295e-20
4.86253e-20
4.86253e-20
4.83295e-20
4.77431e-20
4.68768e-20
4.57462e-20
4.43713e-20
4.27757e-20
4.09866e-20
3.90334e-20
3.69471e-20
3.47594e-20
3.25024e-20
3.02069e-20
2.79027e-20
2.56175e-20
2.33763e-20
2.12014e-20
1.91118e-20
1.71234e-20
1.52484e-20
1.34962e-20
1.18726e-20
1.03808e-20
9.02117e-21
7.79194e-21
6.68925e-21
5.70767e-21
4.84049e-21
4.08008e-21
3.4182e-21
2.84627e-21
2.35561e-21
1.93767e-21
1.58419e-21
1.28731e-21
1.0397e-21
8.34605e-22
6.65893e-22
5.28052e-22
4.16197e-22
3.26039e-22
2.53857e-22
1.96453e-22
1.51105e-22
1.15517e-22
8.77736e-23
6.62874e-23
4.97562e-23
3.71204e-23
2.7525e-23
2.02857e-23
1.48595e-23
1.08185e-23
7.82849e-24
5.63039e-24
4.02484e-24
2.85962e-24
2.01938e-24
1.41734e-24
9.88741e-25
6.8555e-25
4.72438e-25
3.23594e-25
2.20295e-25
1.49059e-25
1.00245e-25
6.7006e-26
4.45159e-26
2.93945e-26
1.92915e-26
1.25839e-26
8.15857e-27
5.25729e-27
3.36713e-27
2.14341e-27
1.35613e-27
8.52799e-28
5.33017e-28
3.31119e-28
2.04445e-28
1.25464e-28
7.65263e-29
4.63929e-29
2.79539e-29
1.6741e-29
9.96482e-30
5.89532e-30
3.46653e-30
2.02596e-30
1.17684e-30
6.7944e-31
3.89884e-31
2.22366e-31
1.26053e-31
7.10205e-32
3.97709e-32
2.21358e-32
1.22455e-32
6.73294e-33
3.67945e-33
1.99853e-33
1.07892e-33
5.78914e-34
3.08737e-34
1.63649e-34
8.62161e-35
4.51452e-35
2.34955e-35
1.21536e-35
6.24852e-36
3.19299e-36
1.62169e-36
8.18628e-37
4.10728e-37
2.0482e-37
1.01517e-37
5.00098e-38
2.44862e-38
1.19161e-38
5.76367e-39
2.77085e-39
1.32396e-39
6.28763e-40
2.96789e-40
1.39238e-40
6.49259e-41
3.00903e-41
1.38607e-41
2.93646e-41
6.37479e-41
1.37549e-40
2.94983e-40
6.28763e-40
1.33207e-39
2.80488e-39
5.87018e-39
1.22106e-38
2.52449e-38
5.18752e-38
1.05948e-37
2.15069e-37
4.33922e-37
8.70149e-37
1.7343e-36
3.43563e-36
6.76452e-36
1.32378e-35
2.57481e-35
4.97764e-35
9.56424e-35
1.82653e-34
3.46699e-34
6.54076e-34
1.22646e-33
2.28574e-33
4.23399e-33
7.7951e-33
1.42641e-32
2.59427e-32
4.68959e-32
8.42566e-32
1.50461e-31
2.67049e-31
4.71094e-31
8.25989e-31
1.43943e-30
2.49319e-30
4.2921e-30
7.34401e-30
1.24895e-29
2.1111e-29
3.54666e-29
5.92217e-29
9.82858e-29
1.62125e-28
2.65802e-28
4.33128e-28
7.01493e-28
1.12922e-27
1.8067e-27
2.87303e-27
4.54093e-27
7.13343e-27
1.11378e-26
1.72844e-26
2.66597e-26
4.087e-26
6.22737e-26
9.43092e-26
1.41956e-25
2.12374e-25
3.15789e-25
4.66706e-25
6.8555e-25
1.00088e-24
1.45237e-24
2.0947e-24
3.00272e-24
4.27815e-24
6.05825e-24
8.52684e-24
1.19283e-23
1.6585e-23
2.29195e-23
3.14806e-23
4.29763e-23
5.8313e-23
7.86414e-23
1.05411e-22
1.40433e-22
1.85953e-22
2.44729e-22
3.20123e-22
4.16197e-22
5.3781e-22
6.9073e-22
8.81734e-22
1.11871e-21
1.41073e-21
1.76815e-21
2.20265e-21
2.72723e-21
3.35618e-21
4.10506e-21
4.99049e-21
6.02997e-21
7.24164e-21
8.64386e-21
1.02548e-20
1.2092e-20
1.41715e-20
1.65076e-20
1.91118e-20
2.19922e-20
2.51527e-20
2.85923e-20
3.23046e-20
3.62767e-20
4.04894e-20
4.49162e-20
4.95239e-20
5.4272e-20
5.91134e-20
6.39949e-20
6.88579e-20
7.36397e-20
7.82743e-20
8.26943e-20
8.68323e-20
9.06226e-20
9.40028e-20
9.69157e-20
9.9311e-20
1.01146e-19
1.02388e-19
1.03015e-19
1.03015e-19
1.02388e-19
1.01146e-19
9.9311e-20
9.69157e-20
9.40028e-20
9.06226e-20
8.68323e-20
8.26943e-20
7.82743e-20
7.36397e-20
6.88579e-20
6.39949e-20
5.91134e-20
5.4272e-20
4.95239e-20
4.49162e-20
4.04894e-20
3.62767e-20
3.23046e-20
2.85923e-20
2.51527e-20
2.19922e-20
1.91118e-20
1.65076e-20
1.41715e-20
1.2092e-20
1.02548e-20
8.64386e-21
7.24164e-21
6.02997e-21
4.99049e-21
4.10506e-21
3.35618e-21
2.72723e-21
2.20265e-21
1.76815e-21
1.41073e-21
1.11871e-21
8.81734e-22
6.9073e-22
5.3781e-22
4.16197e-22
3.20123e-22
2.44729e-22
1.85953e-22
1.40433e-22
1.05411e-22
7.86414e-23
5.8313e-23
4.29763e-23
3.14806e-23
2.29195e-23
1.6585e-23
1.19283e-23
8.52684e-24
6.05825e-24
4.27815e-24
3.00272e-24
2.0947e-24
1.45237e-24
1.00088e-24
6.8555e-25
4.66706e-25
3.15789e-25
2.12374e-25
1.41956e-25
9.43092e-26
6.22737e-26
4.087e-26
2.66597e-26
1.72844e-26
1.11378e-26
7.13343e-27
4.54093e-27
2.87303e-27
1.8067e-27
1.12922e-27
7.01493e-28
4.33128e-28
2.65802e-28
1.62125e-28
9.82858e-29
5.92217e-29
3.54666e-29
2.1111e-29
1.24895e-29
7.34401e-30
4.2921e-30
2.49319e-30
1.43943e-30
8.25989e-31
4.71094e-31
2.67049e-31
1.50461e-31
8.42566e-32
4.68959e-32
2.59427e-32
1.42641e-32
7.7951e-33
4.23399e-33
2.28574e-33
1.22646e-33
6.54076e-34
3.46699e-34
1.82653e-34
9.56424e-35
4.97764e-35
2.57481e-35
1.32378e-35
6.76452e-36
3.43563e-36
1.7343e-36
8.70149e-37
4.33922e-37
2.15069e-37
1.05948e-37
5.18752e-38
2.52449e-38
1.22106e-38
5.87018e-39
2.80488e-39
1.33207e-39
6.28763e-40
2.94983e-40
1.37549e-40
6.37479e-41
2.93646e-41
6.18318e-41
1.34231e-40
2.89631e-40
6.21134e-40
1.32396e-39
2.80488e-39
5.90612e-39
1.23606e-38
2.57114e-38
5.31572e-38
1.09231e-37
2.23091e-37
4.52862e-37
9.13691e-37
1.83224e-36
3.65186e-36
7.23427e-36
1.42438e-35
2.78743e-35
5.42167e-35
1.04812e-34
2.0139e-34
3.84605e-34
7.30031e-34
1.37726e-33
2.5825e-33
4.81299e-33
8.91534e-33
1.64138e-32
3.00353e-32
5.46264e-32
9.87467e-32
1.77416e-31
3.16819e-31
5.62314e-31
9.91964e-31
1.73925e-30
3.03095e-30
5.24981e-30
9.0377e-30
1.5464e-29
2.62987e-29
4.44525e-29
7.46807e-29
1.24701e-28
2.06956e-28
3.4138e-28
5.59689e-28
9.1202e-28
1.47711e-27
2.37776e-27
3.80429e-27
6.04963e-27
9.56165e-27
1.50206e-26
2.34525e-26
3.6395e-26
5.61362e-26
8.60584e-26
1.31127e-25
1.98583e-25
2.9891e-25
4.47186e-25
6.64945e-25
9.82725e-25
1.44354e-24
2.10752e-24
3.0582e-24
4.41072e-24
6.3227e-24
9.00833e-24
1.27566e-23
1.79546e-23
2.51169e-23
3.49225e-23
4.82607e-23
6.62874e-23
9.04936e-23
1.22787e-22
1.65592e-22
2.2196e-22
2.95705e-22
3.91554e-22
5.15316e-22
6.74071e-22
8.76368e-22
1.13245e-21
1.45444e-21
1.85663e-21
2.35561e-21
2.97051e-21
3.72313e-21
4.63804e-21
5.74261e-21
7.06698e-21
8.64386e-21
1.05083e-20
1.26971e-20
1.52484e-20
1.8201e-20
2.15932e-20
2.54616e-20
2.98404e-20
3.47594e-20
4.0243e-20
4.63081e-20
5.2963e-20
6.02057e-20
6.80225e-20
7.63864e-20
8.52568e-20
9.45783e-20
1.0428e-19
1.14278e-19
1.24473e-19
1.34751e-19
1.44991e-19
1.5506e-19
1.64819e-19
1.74126e-19
1.82839e-19
1.9082e-19
1.97938e-19
2.04072e-19
2.09115e-19
2.12979e-19
2.15595e-19
2.16915e-19
2.16915e-19
2.15595e-19
2.12979e-19
2.09115e-19
2.04072e-19
1.97938e-19
1.9082e-19
1.82839e-19
1.74126e-19
1.64819e-19
1.5506e-19
1.44991e-19
1.34751e-19
1.24473e-19
1.14278e-19
1.0428e-19
9.45783e-20
8.52568e-20
7.63864e-20
6.80225e-20
6.02057e-20
5.2963e-20
4.63081e-20
4.0243e-20
3.47594e-20
2.98404e-20
2.54616e-20
2.15932e-20
1.8201e-20
1.52484e-20
1.26971e-20
1.05083e-20
8.64386e-21
7.06698e-21
5.74261e-21
4.63804e-21
3.72313e-21
2.97051e-21
2.35561e-21
1.85663e-21
1.45444e-21
1.13245e-21
8.76368e-22
6.74071e-22
5.15316e-22
3.91554e-22
2.95705e-22
2.2196e-22
1.65592e-22
1.22787e-22
9.04936e-23
6.62874e-23
4.82607e-23
3.49225e-23
2.51169e-23
1.79546e-23
1.27566e-23
9.00833e-24
6.3227e-24
4.41072e-24
3.0582e-24
2.10752e-24
1.44354e-24
9.82725e-25
6.64945e-25
4.47186e-25
2.9891e-25
1.98583e-25
1.31127e-25
8.60584e-26
5.61362e-26
3.6395e-26
2.34525e-26
1.50206e-26
9.56165e-27
6.04963e-27
3.80429e-27
2.37776e-27
1.47711e-27
9.1202e-28
5.59689e-28
3.4138e-28
2.06956e-28
1.24701e-28
7.46807e-29
4.44525e-29
2.62987e-29
1.5464e-29
9.0377e-30
5.24981e-30
3.03095e-30
1.73925e-30
9.91964e-31
5.62314e-31
3.16819e-31
1.77416e-31
9.87467e-32
5.46264e-32
3.00353e-32
1.64138e-32
8.91534e-33
4.81299e-33
2.5825e-33
1.37726e-33
7.30031e-34
3.84605e-34
2.0139e-34
1.04812e-34
5.42167e-35
2.78743e-35
1.42438e-35
7.23427e-36
3.65186e-36
1.83224e-36
9.13691e-37
4.52862e-37
2.23091e-37
1.09231e-37
5.31572e-38
2.57114e-38
1.23606e-38
5.90612e-39
2.80488e-39
1.32396e-39
6.21134e-40
2.89631e-40
1.34231e-40
6.18318e-41
1.29405e-40
2.80926e-40
6.06153e-40
1.29994e-39
2.77085e-39
5.87018e-39
1.23606e-38
2.58689e-38
5.38101e-38
1.1125e-37
2.28605e-37
4.66896e-37
9.47772e-37
1.91222e-36
3.83459e-36
7.64278e-36
1.51402e-35
2.981e-35
5.83367e-35
1.13467e-34
2.19356e-34
4.21479e-34
8.0492e-34
1.52784e-33
2.8824e-33
5.40479e-33
1.00728e-32
1.86584e-32
3.43517e-32
6.28593e-32
1.14325e-31
2.06662e-31
3.71304e-31
6.63053e-31
1.17684e-30
2.07603e-30
3.63999e-30
6.34331e-30
1.0987e-29
1.89145e-29
3.23638e-29
5.50392e-29
9.30324e-29
1.56295e-28
2.60979e-28
4.33128e-28
7.14456e-28
1.17134e-27
1.90872e-27
3.09136e-27
4.97629e-27
7.9618e-27
1.26609e-26
2.00111e-26
3.14358e-26
4.90825e-26
7.61691e-26
1.17484e-25
1.80107e-25
2.74429e-25
4.15604e-25
6.25574e-25
9.35893e-25
1.39163e-24
2.05669e-24
3.0211e-24
4.41072e-24
6.40035e-24
9.23097e-24
1.32324e-23
1.88531e-23
2.66977e-23
3.75763e-23
5.25658e-23
7.30874e-23
1.01002e-22
1.38729e-22
1.89389e-22
2.56975e-22
3.46559e-22
4.64528e-22
6.18864e-22
8.19462e-22
1.07848e-21
1.41073e-21
1.83411e-21
2.37003e-21
3.04393e-21
3.88565e-21
4.92994e-21
6.21683e-21
7.79194e-21
9.7067e-21
1.20184e-20
1.47901e-20
1.80903e-20
2.19922e-20
2.6573e-20
3.19126e-20
3.8092e-20
4.51912e-20
5.32873e-20
6.24514e-20
7.27462e-20
8.42224e-20
9.69157e-20
1.10843e-19
1.26001e-19
1.42361e-19
1.59865e-19
1.78429e-19
1.97938e-19
2.18243e-19
2.39167e-19
2.60502e-19
2.82014e-19
3.03445e-19
3.24517e-19
3.44941e-19
3.64419e-19
3.82655e-19
3.99358e-19
4.14254e-19
4.27091e-19
4.37646e-19
4.45733e-19
4.51208e-19
4.5397e-19
4.5397e-19
4.51208e-19
4.45733e-19
4.37646e-19
4.27091e-19
4.14254e-19
3.99358e-19
3.82655e-19
3.64419e-19
3.44941e-19
3.24517e-19
3.03445e-19
2.82014e-19
2.60502e-19
2.39167e-19
2.18243e-19
1.97938e-19
1.78429e-19
1.59865e-19
1.42361e-19
1.26001e-19
1.10843e-19
9.69157e-20
8.42224e-20
7.27462e-20
6.24514e-20
5.32873e-20
4.51912e-20
3.8092e-20
3.19126e-20
2.6573e-20
2.19922e-20
1.80903e-20
1.47901e-20
1.20184e-20
9.7067e-21
7.79194e-21
6.21683e-21
4.92994e-21
3.88565e-21
3.04393e-21
2.37003e-21
1.83411e-21
1.41073e-21
1.07848e-21
8.19462e-22
6.18864e-22
4.64528e-22
3.46559e-22
2.56975e-22
1.89389e-22
1.38729e-22
1.01002e-22
7.30874e-23
5.25658e-23
3.75763e-23
2.66977e-23
1.88531e-23
1.32324e-23
9.23097e-24
6.40035e-24
4.41072e-24
3.0211e-24
2.05669e-24
1.39163e-24
9.35893e-25
6.25574e-25
4.15604e-25
2.74429e-25
1.80107e-25
1.17484e-25
7.61691e-26
4.90825e-26
3.14358e-26
2.00111e-26
1.26609e-26
7.9618e-27
4.97629e-27
3.09136e-27
1.90872e-27
1.17134e-27
7.14456e-28
4.33128e-28
2.60979e-28
1.56295e-28
9.30324e-29
5.50392e-29
3.23638e-29
1.89145e-29
1.0987e-29
6.34331e-30
3.63999e-30
2.07603e-30
1.17684e-30
6.63053e-31
3.71304e-31
2.06662e-31
1.14325e-31
6.28593e-32
3.43517e-32
1.86584e-32
1.00728e-32
5.40479e-33
2.8824e-33
1.52784e-33
8.0492e-34
4.21479e-34
2.19356e-34
1.13467e-34
5.83367e-35
2.981e-35
1.51402e-35
7.64278e-36
3.83459e-36
1.91222e-36
9.47772e-37
4.66896e-37
2.28605e-37
1.1125e-37
5.38101e-38
2.58689e-38
1.23606e-38
5.87018e-39
2.77085e-39
1.29994e-39
6.06153e-40
2.80926e-40
1.29405e-40
2.69176e-40
5.84357e-40
1.26087e-39
2.70402e-39
5.76367e-39
1.22106e-38
2.57114e-38
5.38101e-38
1.11931e-37
2.31412e-37
4.75524e-37
9.71196e-37
1.97147e-36
3.97762e-36
7.97639e-36
1.58978e-35
3.14934e-35
6.20082e-35
1.21347e-34
2.36025e-34
4.56284e-34
8.76724e-34
1.67432e-33
3.17809e-33
5.99571e-33
1.12426e-32
2.09527e-32
3.88117e-32
7.14553e-32
1.30754e-31
2.37808e-31
4.2988e-31
7.72354e-31
1.37923e-30
2.44795e-30
4.31838e-30
7.57159e-30
1.31948e-29
2.28543e-29
3.93443e-29
6.73203e-29
1.14488e-28
1.93518e-28
3.25112e-28
5.42867e-28
9.00955e-28
1.48615e-27
2.43653e-27
3.97035e-27
6.43037e-27
1.03512e-26
1.65614e-26
2.63362e-26
4.16253e-26
6.53899e-26
1.02097e-25
1.5844e-25
2.44381e-25
3.74643e-25
5.70844e-25
8.64503e-25
1.30126e-24
1.94676e-24
2.89474e-24
4.27815e-24
6.28422e-24
9.1748e-24
1.33135e-23
1.92015e-23
2.7525e-23
3.92165e-23
5.55341e-23
7.81628e-23
1.09343e-22
1.5203e-22
2.10096e-22
2.88573e-22
3.93951e-22
5.34538e-22
7.20881e-22
9.6627e-22
1.28731e-21
1.70457e-21
2.24336e-21
2.93447e-21
3.81514e-21
4.92994e-21
6.33171e-21
8.08258e-21
1.02548e-20
1.29317e-20
1.62081e-20
2.0191e-20
2.49996e-20
3.07651e-20
3.76298e-20
4.57462e-20
5.52749e-20
6.63819e-20
7.92356e-20
9.40028e-20
1.10843e-19
1.29906e-19
1.5132e-19
1.75192e-19
2.01596e-19
2.30567e-19
2.62097e-19
2.96126e-19
3.32537e-19
3.71153e-19
4.11733e-19
4.5397e-19
4.97494e-19
5.41874e-19
5.86621e-19
6.31199e-19
6.75032e-19
7.17516e-19
7.58033e-19
7.95965e-19
8.30709e-19
8.61694e-19
8.88396e-19
9.10353e-19
9.27175e-19
9.38563e-19
9.44309e-19
9.44309e-19
9.38563e-19
9.27175e-19
9.10353e-19
8.88396e-19
8.61694e-19
8.30709e-19
7.95965e-19
7.58033e-19
7.17516e-19
6.75032e-19
6.31199e-19
5.86621e-19
5.41874e-19
4.97494e-19
4.5397e-19
4.11733e-19
3.71153e-19
3.32537e-19
2.96126e-19
2.62097e-19
2.30567e-19
2.01596e-19
1.75192e-19
1.5132e-19
1.29906e-19
1.10843e-19
9.40028e-20
7.92356e-20
6.63819e-20
5.52749e-20
4.57462e-20
3.76298e-20
3.07651e-20
2.49996e-20
2.0191e-20
1.62081e-20
1.29317e-20
1.02548e-20
8.08258e-21
6.33171e-21
4.92994e-21
3.81514e-21
2.93447e-21
2.24336e-21
1.70457e-21
1.28731e-21
9.6627e-22
7.20881e-22
5.34538e-22
3.93951e-22
2.88573e-22
2.10096e-22
1.5203e-22
1.09343e-22
7.81628e-23
5.55341e-23
3.92165e-23
2.7525e-23
1.92015e-23
1.33135e-23
9.1748e-24
6.28422e-24
4.27815e-24
2.89474e-24
1.94676e-24
1.30126e-24
8.64503e-25
5.70844e-25
3.74643e-25
2.44381e-25
1.5844e-25
1.02097e-25
6.53899e-26
4.16253e-26
2.63362e-26
1.65614e-26
1.03512e-26
6.43037e-27
3.97035e-27
2.43653e-27
1.48615e-27
9.00955e-28
5.42867e-28
3.25112e-28
1.93518e-28
1.14488e-28
6.73203e-29
3.93443e-29
2.28543e-29
1.31948e-29
7.57159e-30
4.31838e-30
2.44795e-30
1.37923e-30
7.72354e-31
4.2988e-31
2.37808e-31
1.30754e-31
7.14553e-32
3.88117e-32
2.09527e-32
1.12426e-32
5.99571e-33
3.17809e-33
1.67432e-33
8.76724e-34
4.56284e-34
2.36025e-34
1.21347e-34
6.20082e-35
3.14934e-35
1.58978e-35
7.97639e-36
3.97762e-36
1.97147e-36
9.71196e-37
4.75524e-37
2.31412e-37
1.11931e-37
5.38101e-38
2.57114e-38
1.22106e-38
5.76367e-39
2.70402e-39
1.26087e-39
5.84357e-40
2.69176e-40
5.56509e-40
1.20813e-39
2.60679e-39
5.59044e-39
1.19161e-38
2.52449e-38
5.31572e-38
1.1125e-37
2.31412e-37
4.78435e-37
9.83124e-37
2.0079e-36
4.07593e-36
8.22356e-36
1.64908e-35
3.28681e-35
6.51111e-35
1.28199e-34
2.50879e-34
4.87971e-34
9.43348e-34
1.81259e-33
3.46159e-33
6.57055e-33
1.23959e-32
2.32435e-32
4.33187e-32
8.02413e-32
1.47731e-31
2.70329e-31
4.91658e-31
8.88757e-31
1.59681e-30
2.85149e-30
5.06103e-30
8.92805e-30
1.56539e-29
2.72796e-29
4.72502e-29
8.13426e-29
1.39182e-28
2.36698e-28
4.00089e-28
6.72153e-28
1.12235e-27
1.86268e-27
3.07255e-27
5.03741e-27
8.20852e-27
1.32945e-26
2.14007e-26
3.424e-26
5.44489e-26
8.60584e-26
1.35191e-25
2.11081e-25
3.27568e-25
5.05246e-25
7.74558e-25
1.18019e-24
1.78732e-24
2.6903e-24
4.02484e-24
5.98475e-24
8.84489e-24
1.29924e-23
1.89685e-23
2.7525e-23
3.96981e-23
5.69066e-23
8.10783e-23
1.14814e-22
1.61598e-22
2.26061e-22
3.14315e-22
4.34364e-22
5.96611e-22
8.14476e-22
1.10513e-21
1.49039e-21
1.99772e-21
2.66145e-21
3.52413e-21
4.63804e-21
6.06689e-21
7.88764e-21
1.01924e-20
1.30905e-20
1.67104e-20
2.12014e-20
2.67357e-20
3.35095e-20
4.1744e-20
5.16856e-20
6.36055e-20
7.7798e-20
9.45783e-20
1.14278e-19
1.37242e-19
1.63816e-19
1.94347e-19
2.29164e-19
2.68575e-19
3.12848e-19
3.62202e-19
4.1679e-19
4.76687e-19
5.41874e-19
6.12227e-19
6.87506e-19
7.67343e-19
8.51239e-19
9.38563e-19
1.02855e-18
1.1203e-18
1.21281e-18
1.30498e-18
1.3956e-18
1.48343e-18
1.5672e-18
1.64562e-18
1.71745e-18
1.78151e-18
1.83672e-18
1.88211e-18
1.91689e-18
1.94044e-18
1.95232e-18
1.95232e-18
1.94044e-18
1.91689e-18
1.88211e-18
1.83672e-18
1.78151e-18
1.71745e-18
1.64562e-18
1.5672e-18
1.48343e-18
1.3956e-18
1.30498e-18
1.21281e-18
1.1203e-18
1.02855e-18
9.38563e-19
8.51239e-19